==================================================================================
It's Mon Aug 18 01:01:37 BST 2025.
*** Starting onetep_launcher (node trent003.blythe.scrtp.warwick.ac.uk, PIDs)...
    - ONETEP arguments: Au-Graphene.dat
    - Current directory: /springbrook/share/physicsnh/phumhp/GC-eDFT/Graphene-6x6x2/Au-001/Site-005/2.8/+0.10V
    - Launcher executable directory: /springbrook/share/physicsnh/onetep_main/utils
    - (-e) ONETEP executable specified through command-line: /springbrook/share/physicsnh/onetep_main/bin/onetep.blythe_gnu
      ... trying /springbrook/share/physicsnh/onetep_main/bin/onetep.blythe_gnu
          -> looks OK
*** Setting up environment...
    - (-s) Process stack size: unlimited
    - (-t) OMP_NUM_THREADS: 7
    - (-o) OMP_STACKSIZE: 64M
    - (-c) Maximum core file size: 2048000
    - (-g) No GPUs will be used
    - (-d) decfort_dump_flag: n
    - (-m) I_MPI_OFA_TRANSLATION_CACHE: 0
    - (-m) I_MPI_DAPL_TRANSLATION_CACHE: 0
    - (-m) I_MPI_DAPL_UD_TRANSLATION_CACHE: 0
*** Starting ONETEP...
    - /springbrook/share/physicsnh/onetep_main/bin/onetep.blythe_gnu Au-Graphene.dat
=================================================================================
_________________________________________________________________________________
 +---------------------------------------------------------------+
 |                                                               |
 |        ####### #     # ####### ####### ####### ######         |
 |        #     # ##    # #          #    #       #     #        |
 |        #     # # #   # #          #    #       #     #        |
 |        #     # #  #  # #####      #    #####   ######         |
 |        #     # #   # # #          #    #       #              |
 |        #     # #    ## #          #    #       #              |
 |        ####### #     # #######    #    ####### #              |
 |                                                               |
 |        Linear-Scaling Ab Initio Total Energy Program          |
 |                                                               |
 |          Release for academic collaborators of ODG            |
 |                                             Version 7.3.96    |
 | Remote: git@github.com:G-Seaford/onetep_g-seaford.git         |
 | Local branch: master                                          |
 | Commit ID: c61dba4d5992c5f6a7fec88f818c1233aa514ee4           |
 | Date: Fri Jul 18 18:29:54 2025 +0100                          |
 | Working tree clean                                            |
 |                                                               |
 +---------------------------------------------------------------+
 |                                                               |
 |  Authors:                                                     |
 |  Jacek Dziedzic, Peter D. Haynes, Nicholas D. M. Hine,        |
 |  Arash A. Mostofi, Mike C. Payne and Chris-Kriton Skylaris    |
 |                                                               |
 |  Contributors:                                                |
 |  J. Aarons, L. Andrinopoulos, P. W. Avraam, R. A. Bell,       |
 |  A. Bhandari, G. A. Bramley, R. J. Charlton, S. J. Clark,     |
 |  R. J. Clements, G. C. Constantinescu, F. Corsetti,           |
 |  N. Corsini, O. Dieguez, S. M. M. Dubois, K. K. B. Duff,      |
 |  J. M. Escartin, M. Escobar Azor, A. Greco,                   |
 |  H. Helal, Q. O. Hill, L. P. Lee, J.-H. Li,                   |
 |  T. Li, E. B. Linscott, G. Moynihan, D. D. O`Regan,           |
 |  O. K. Okan, E. Parkinson, M. J. S. Phipps,                   |
 |  C. J. Pickard, J. C. A. Prentice, M. I. J. Probert,          |
 |  L. E. Ratcliff, M. Robinson, A. Ruiz Serrano,                |
 |  M. dos Santos Dias, J. S. Spencer, E. W. Tait,               |
 |  G. Teobaldi, D. Turban, V. Vitale, K. A. Wilkinson,          |
 |  C. Weber, J. C. Womack, Chengcheng Xiao, N. Yeung,           |
 |  and T. J. Zuehlsdorff.                                       |
 |                                                               |
 |                                   Copyright (c) 2004-2025     |
 |                                                               |
 |  Please cite:                                                 |
 |  "The ONETEP linear-scaling density functional theory program"|
 |   J. Chem. Phys. 152(17) 174111 (2020)                        |
 |                                                               |
 |          in all publications arising from your use of ONETEP. |
 |                                                               |
 +---------------------------------------------------------------+
 |                                                               |
 |   ONETEP is based on developments described in the following  |
 |   publications:                                               |
 |                                                               |
 |  "Nonorthogonal generalized Wannier function pseudopotential  |
 |   plane-wave method".                                         |
 |   C.-K. Skylaris, A. A. Mostofi, P. D. Haynes, O. Dieguez,    |
 |   M. C. Payne.                                                |
 |   Phys. Rev. B 66 035119 (2002).                              |
 |                                                               |
 |  "Preconditioned iterative minimization for linear-scaling    |
 |   electronic structure calculations".                         |
 |   A. A. Mostofi, P. D. Haynes, C.-K. Skylaris, M. C. Payne.   |
 |   J. Chem. Phys. 119(17), pp.8842-8848 (2003).                |
 |                                                               |
 |  "Total-energy calculations on a real space grid with         |
 |   localized functions and a plane-wave basis".                |
 |   A. A. Mostofi, C.-K. Skylaris, P. D. Haynes, M. C. Payne.   |
 |   Comput. Phys. Commun. 147, pp.788-802 (2002).               |
 |                                                               |
 |  "Accurate kinetic energy evaluation in electronic structure  |
 |   calculations with localized functions on real space grids"  |
 |   C.-K. Skylaris, A. A. Mostofi, P. D. Haynes, C. J. Pickard, |
 |   M. C. Payne.                                                |
 |   Comput. Phys. Commun. 140, pp.315-322 (2001).               |
 |                                                               |
 |  "Accurate ionic forces and geometry optimization in linear-  |
 |   scaling density-functional theory with local orbitals"      |
 |   N. D. M. Hine, M. Robinson, P. D. Haynes, C.-K. Skylaris,   |
 |   M. C. Payne, and A. A. Mostofi.                             |
 |   Phys. Rev. B 83 195102 (2011).                              |
 |                                                               |
 +---------------------------------------------------------------+

Job started: 18-08-2025 01:01 (+0100)

Reading parameters from file "Au-Graphene.dat" ...... done

Initializing kpt-parallel run with 4 kpars.
|ITER|    RMS GRADIENT   |     TOTAL ENERGY    |   step   |     Epredicted              
   0     0.00028228430434   -793.25491607026527   0.241889   -795.74908027132778        
   1     0.00020098907882   -796.66202577015747   0.636346   -801.79283111611392        
   2     0.00009969677562   -801.80650417416246   0.672350   -802.64856362209480        
   3     0.00006160984769   -802.70024571765566   0.638728   -803.02909057274849        
   4     0.00003733373829   -803.03597964739902   0.756115   -803.17235199833533        
   5     0.00001562320640   -803.17586156482832   0.819819   -803.20481983995603        
   6     0.00000881305740   -803.20626847995345   1.140146   -803.22168334638707        
   7     0.00000704858240   -803.22194573803267   1.826290   -803.23691906968645        
   8     0.00000678490523   -803.23191983780441   0.759360   -803.23644330178263        
   9     0.00000322959557   -803.23647495687987   2.834596   -803.24010765619153        
  10     0.00000629276270   -803.23708481990070   0.614799   -803.24023511819507        
  11     0.00000245277968   -803.23992628090843   0.642960   -803.24042293652963        
  12     0.00000129655714   -803.24058772231444  <-- CG
|ITER|    RMS GRADIENT   |     TOTAL ENERGY    |   step   |     Epredicted              
   0     0.00000610089365   -803.26149602561463   0.186049   -803.26239211161044        
   1     0.00000518016345   -803.26264539592705   0.219103   -803.26400889488104        
   2     0.00000504155025   -803.26522217529714   0.230972   -803.26727306412783        
   3     0.00000353080952   -803.26742197734688   0.214525   -803.26833442110785        
   4     0.00000352458081   -803.26893893527051   0.559688   -803.26983863283590        
   5     0.00000296152275   -803.27025556209742   0.722826   -803.27170117320384        
   6     0.00000279299498   -803.27270822268827   0.856992   -803.27481617150966        
   7     0.00000194535785   -803.27509488117948  <-- CG
onetep_launcher: ONETEP seems to have finished correctly (zero exit code).
                 Brought to you by PID 3183525 on trent003.blythe.scrtp.warwick.ac.uk.
