==================================================================================
It's Sun Aug 17 21:56:04 BST 2025.
*** Starting onetep_launcher (node trent006.blythe.scrtp.warwick.ac.uk, PIDs)...
    - ONETEP arguments: Au-Graphene.dat
    - Current directory: /springbrook/share/physicsnh/phumhp/GC-eDFT/Graphene-6x6x2/Au-001/Site-005/2.8/-0.10V
    - Launcher executable directory: /springbrook/share/physicsnh/onetep_main/utils
    - (-e) ONETEP executable specified through command-line: /springbrook/share/physicsnh/onetep_main/bin/onetep.blythe_gnu
      ... trying /springbrook/share/physicsnh/onetep_main/bin/onetep.blythe_gnu
          -> looks OK
*** Setting up environment...
    - (-s) Process stack size: unlimited
    - (-t) OMP_NUM_THREADS: 7
    - (-o) OMP_STACKSIZE: 64M
    - (-c) Maximum core file size: 2048000
    - (-g) No GPUs will be used
    - (-d) decfort_dump_flag: n
    - (-m) I_MPI_OFA_TRANSLATION_CACHE: 0
    - (-m) I_MPI_DAPL_TRANSLATION_CACHE: 0
    - (-m) I_MPI_DAPL_UD_TRANSLATION_CACHE: 0
*** Starting ONETEP...
    - /springbrook/share/physicsnh/onetep_main/bin/onetep.blythe_gnu Au-Graphene.dat
=================================================================================
_________________________________________________________________________________
 +---------------------------------------------------------------+
 |                                                               |
 |        ####### #     # ####### ####### ####### ######         |
 |        #     # ##    # #          #    #       #     #        |
 |        #     # # #   # #          #    #       #     #        |
 |        #     # #  #  # #####      #    #####   ######         |
 |        #     # #   # # #          #    #       #              |
 |        #     # #    ## #          #    #       #              |
 |        ####### #     # #######    #    ####### #              |
 |                                                               |
 |        Linear-Scaling Ab Initio Total Energy Program          |
 |                                                               |
 |          Release for academic collaborators of ODG            |
 |                                             Version 7.3.96    |
 | Remote: git@github.com:G-Seaford/onetep_g-seaford.git         |
 | Local branch: master                                          |
 | Commit ID: c61dba4d5992c5f6a7fec88f818c1233aa514ee4           |
 | Date: Fri Jul 18 18:29:54 2025 +0100                          |
 | Working tree clean                                            |
 |                                                               |
 +---------------------------------------------------------------+
 |                                                               |
 |  Authors:                                                     |
 |  Jacek Dziedzic, Peter D. Haynes, Nicholas D. M. Hine,        |
 |  Arash A. Mostofi, Mike C. Payne and Chris-Kriton Skylaris    |
 |                                                               |
 |  Contributors:                                                |
 |  J. Aarons, L. Andrinopoulos, P. W. Avraam, R. A. Bell,       |
 |  A. Bhandari, G. A. Bramley, R. J. Charlton, S. J. Clark,     |
 |  R. J. Clements, G. C. Constantinescu, F. Corsetti,           |
 |  N. Corsini, O. Dieguez, S. M. M. Dubois, K. K. B. Duff,      |
 |  J. M. Escartin, M. Escobar Azor, A. Greco,                   |
 |  H. Helal, Q. O. Hill, L. P. Lee, J.-H. Li,                   |
 |  T. Li, E. B. Linscott, G. Moynihan, D. D. O`Regan,           |
 |  O. K. Okan, E. Parkinson, M. J. S. Phipps,                   |
 |  C. J. Pickard, J. C. A. Prentice, M. I. J. Probert,          |
 |  L. E. Ratcliff, M. Robinson, A. Ruiz Serrano,                |
 |  M. dos Santos Dias, J. S. Spencer, E. W. Tait,               |
 |  G. Teobaldi, D. Turban, V. Vitale, K. A. Wilkinson,          |
 |  C. Weber, J. C. Womack, Chengcheng Xiao, N. Yeung,           |
 |  and T. J. Zuehlsdorff.                                       |
 |                                                               |
 |                                   Copyright (c) 2004-2025     |
 |                                                               |
 |  Please cite:                                                 |
 |  "The ONETEP linear-scaling density functional theory program"|
 |   J. Chem. Phys. 152(17) 174111 (2020)                        |
 |                                                               |
 |          in all publications arising from your use of ONETEP. |
 |                                                               |
 +---------------------------------------------------------------+
 |                                                               |
 |   ONETEP is based on developments described in the following  |
 |   publications:                                               |
 |                                                               |
 |  "Nonorthogonal generalized Wannier function pseudopotential  |
 |   plane-wave method".                                         |
 |   C.-K. Skylaris, A. A. Mostofi, P. D. Haynes, O. Dieguez,    |
 |   M. C. Payne.                                                |
 |   Phys. Rev. B 66 035119 (2002).                              |
 |                                                               |
 |  "Preconditioned iterative minimization for linear-scaling    |
 |   electronic structure calculations".                         |
 |   A. A. Mostofi, P. D. Haynes, C.-K. Skylaris, M. C. Payne.   |
 |   J. Chem. Phys. 119(17), pp.8842-8848 (2003).                |
 |                                                               |
 |  "Total-energy calculations on a real space grid with         |
 |   localized functions and a plane-wave basis".                |
 |   A. A. Mostofi, C.-K. Skylaris, P. D. Haynes, M. C. Payne.   |
 |   Comput. Phys. Commun. 147, pp.788-802 (2002).               |
 |                                                               |
 |  "Accurate kinetic energy evaluation in electronic structure  |
 |   calculations with localized functions on real space grids"  |
 |   C.-K. Skylaris, A. A. Mostofi, P. D. Haynes, C. J. Pickard, |
 |   M. C. Payne.                                                |
 |   Comput. Phys. Commun. 140, pp.315-322 (2001).               |
 |                                                               |
 |  "Accurate ionic forces and geometry optimization in linear-  |
 |   scaling density-functional theory with local orbitals"      |
 |   N. D. M. Hine, M. Robinson, P. D. Haynes, C.-K. Skylaris,   |
 |   M. C. Payne, and A. A. Mostofi.                             |
 |   Phys. Rev. B 83 195102 (2011).                              |
 |                                                               |
 +---------------------------------------------------------------+

Job started: 17-08-2025 21:56 (+0100)

Reading parameters from file "Au-Graphene.dat" ...... done

Initializing kpt-parallel run with 4 kpars.
|ITER|    RMS GRADIENT   |     TOTAL ENERGY    |   step   |     Epredicted              
   0     0.00028548854833   -797.57912802857470   0.224808   -799.95008962260874        
   1     0.00020456449567   -800.76926358761159   0.631006   -806.03539979280447        
   2     0.00010321305634   -806.06701213082113   0.568702   -806.83444559961868        
   3     0.00006659134148   -806.92310803188514   0.601748   -807.31587407343090        
   4     0.00003968845741   -807.32402286749596   0.742841   -807.47543472215693        
   5     0.00001652773255   -807.47982111632882   0.876918   -807.51444746884295        
   6     0.00000942849175   -807.51685845484872   1.358525   -807.53756610338405        
   7     0.00000790932859   -807.53769548331923   1.576348   -807.55236390838797        
   8     0.00000681141680   -807.54772786949923   0.725590   -807.55208400845004        
   9     0.00000348417327   -807.55189720545627   1.882305   -807.55479604379366        
  10     0.00000376368783   -807.55413385430279   1.390668   -807.55537877868164        
  11     0.00000341175596   -807.55524703082256   0.768471   -807.55585839724199        
  12     0.00000276918625   -807.55571250383457   0.648718   -807.55635622212151        
  13     0.00000169193832   -807.55617081014861  <-- CG
|ITER|    RMS GRADIENT   |     TOTAL ENERGY    |   step   |     Epredicted              
   0     0.00000682301654   -807.58999465680563   0.254309   -807.59152662758663        
   1     0.00000603023672   -807.59270162206860   0.275606   -807.59513592054623        
   2     0.00000477000524   -807.59600919723425   0.276854   -807.59798017764888        
   3     0.00000396094254   -807.59862717542558   0.286296   -807.60028064276548        
   4     0.00000318385961   -807.60043196212200   4.694531   -807.60658990632749        
   5     0.00000528571549   -807.60404167008062   0.651733   -807.60639787624768        
   6     0.00000189571755   -807.60607865674547  <-- CG
onetep_launcher: ONETEP seems to have finished correctly (zero exit code).
                 Brought to you by PID 1675631 on trent006.blythe.scrtp.warwick.ac.uk.
