==================================================================================
It's Wed Aug 13 14:54:01 BST 2025.
*** Starting onetep_launcher (node trent006.blythe.scrtp.warwick.ac.uk, PIDs)...
    - ONETEP arguments: Au-Graphene.dat
    - Current directory: /springbrook/share/physicsnh/phumhp/GC-eDFT/Graphene-6x6x2/Au-001/Site-002/2.8/+0.00V
    - Launcher executable directory: /springbrook/share/physicsnh/onetep_main/utils
    - (-e) ONETEP executable specified through command-line: /springbrook/share/physicsnh/onetep_main/bin/onetep.blythe_gnu
      ... trying /springbrook/share/physicsnh/onetep_main/bin/onetep.blythe_gnu
          -> looks OK
*** Setting up environment...
    - (-s) Process stack size: unlimited
    - (-t) OMP_NUM_THREADS: 7
    - (-o) OMP_STACKSIZE: 64M
    - (-c) Maximum core file size: 2048000
    - (-g) No GPUs will be used
    - (-d) decfort_dump_flag: n
    - (-m) I_MPI_OFA_TRANSLATION_CACHE: 0
    - (-m) I_MPI_DAPL_TRANSLATION_CACHE: 0
    - (-m) I_MPI_DAPL_UD_TRANSLATION_CACHE: 0
*** Starting ONETEP...
    - /springbrook/share/physicsnh/onetep_main/bin/onetep.blythe_gnu Au-Graphene.dat
=================================================================================
_________________________________________________________________________________
 +---------------------------------------------------------------+
 |                                                               |
 |        ####### #     # ####### ####### ####### ######         |
 |        #     # ##    # #          #    #       #     #        |
 |        #     # # #   # #          #    #       #     #        |
 |        #     # #  #  # #####      #    #####   ######         |
 |        #     # #   # # #          #    #       #              |
 |        #     # #    ## #          #    #       #              |
 |        ####### #     # #######    #    ####### #              |
 |                                                               |
 |        Linear-Scaling Ab Initio Total Energy Program          |
 |                                                               |
 |          Release for academic collaborators of ODG            |
 |                                             Version 7.3.96    |
 | Remote: git@github.com:G-Seaford/onetep_g-seaford.git         |
 | Local branch: master                                          |
 | Commit ID: c61dba4d5992c5f6a7fec88f818c1233aa514ee4           |
 | Date: Fri Jul 18 18:29:54 2025 +0100                          |
 | Working tree clean                                            |
 |                                                               |
 +---------------------------------------------------------------+
 |                                                               |
 |  Authors:                                                     |
 |  Jacek Dziedzic, Peter D. Haynes, Nicholas D. M. Hine,        |
 |  Arash A. Mostofi, Mike C. Payne and Chris-Kriton Skylaris    |
 |                                                               |
 |  Contributors:                                                |
 |  J. Aarons, L. Andrinopoulos, P. W. Avraam, R. A. Bell,       |
 |  A. Bhandari, G. A. Bramley, R. J. Charlton, S. J. Clark,     |
 |  R. J. Clements, G. C. Constantinescu, F. Corsetti,           |
 |  N. Corsini, O. Dieguez, S. M. M. Dubois, K. K. B. Duff,      |
 |  J. M. Escartin, M. Escobar Azor, A. Greco,                   |
 |  H. Helal, Q. O. Hill, L. P. Lee, J.-H. Li,                   |
 |  T. Li, E. B. Linscott, G. Moynihan, D. D. O`Regan,           |
 |  O. K. Okan, E. Parkinson, M. J. S. Phipps,                   |
 |  C. J. Pickard, J. C. A. Prentice, M. I. J. Probert,          |
 |  L. E. Ratcliff, M. Robinson, A. Ruiz Serrano,                |
 |  M. dos Santos Dias, J. S. Spencer, E. W. Tait,               |
 |  G. Teobaldi, D. Turban, V. Vitale, K. A. Wilkinson,          |
 |  C. Weber, J. C. Womack, Chengcheng Xiao, N. Yeung,           |
 |  and T. J. Zuehlsdorff.                                       |
 |                                                               |
 |                                   Copyright (c) 2004-2025     |
 |                                                               |
 |  Please cite:                                                 |
 |  "The ONETEP linear-scaling density functional theory program"|
 |   J. Chem. Phys. 152(17) 174111 (2020)                        |
 |                                                               |
 |          in all publications arising from your use of ONETEP. |
 |                                                               |
 +---------------------------------------------------------------+
 |                                                               |
 |   ONETEP is based on developments described in the following  |
 |   publications:                                               |
 |                                                               |
 |  "Nonorthogonal generalized Wannier function pseudopotential  |
 |   plane-wave method".                                         |
 |   C.-K. Skylaris, A. A. Mostofi, P. D. Haynes, O. Dieguez,    |
 |   M. C. Payne.                                                |
 |   Phys. Rev. B 66 035119 (2002).                              |
 |                                                               |
 |  "Preconditioned iterative minimization for linear-scaling    |
 |   electronic structure calculations".                         |
 |   A. A. Mostofi, P. D. Haynes, C.-K. Skylaris, M. C. Payne.   |
 |   J. Chem. Phys. 119(17), pp.8842-8848 (2003).                |
 |                                                               |
 |  "Total-energy calculations on a real space grid with         |
 |   localized functions and a plane-wave basis".                |
 |   A. A. Mostofi, C.-K. Skylaris, P. D. Haynes, M. C. Payne.   |
 |   Comput. Phys. Commun. 147, pp.788-802 (2002).               |
 |                                                               |
 |  "Accurate kinetic energy evaluation in electronic structure  |
 |   calculations with localized functions on real space grids"  |
 |   C.-K. Skylaris, A. A. Mostofi, P. D. Haynes, C. J. Pickard, |
 |   M. C. Payne.                                                |
 |   Comput. Phys. Commun. 140, pp.315-322 (2001).               |
 |                                                               |
 |  "Accurate ionic forces and geometry optimization in linear-  |
 |   scaling density-functional theory with local orbitals"      |
 |   N. D. M. Hine, M. Robinson, P. D. Haynes, C.-K. Skylaris,   |
 |   M. C. Payne, and A. A. Mostofi.                             |
 |   Phys. Rev. B 83 195102 (2011).                              |
 |                                                               |
 +---------------------------------------------------------------+

Job started: 13-08-2025 14:54 (+0100)

Reading parameters from file "Au-Graphene.dat" ...... done

Initializing kpt-parallel run with 4 kpars.
|ITER|    RMS GRADIENT   |     TOTAL ENERGY    |   step   |     Epredicted              
   0     0.00026955049093   -795.41756851686478   0.355344   -798.75848420485897        
   1     0.00017801599091   -800.14727347588257   0.605882   -803.90708530254415        
   2     0.00008515144059   -804.16842311095479   0.780792   -804.97047723807464        
   3     0.00005098868535   -804.99652549815278   0.737874   -805.24412778228861        
   4     0.00003096997290   -805.24793644665772   0.803987   -805.34772173983436        
   5     0.00001338100360   -805.35002410911488   0.868156   -805.37258704908140        
   6     0.00000752876720   -805.37374639290113   1.234193   -805.38606141750995        
   7     0.00000609064741   -805.38733343778199   2.157306   -805.40094392691037        
   8     0.00000682678916   -805.39386993264429   0.725108   -805.39824285266502        
   9     0.00000388346222   -805.39804768934732   0.731812   -805.39946924897060        
  10     0.00000354914909   -805.39921371656737   1.157139   -805.40109082821596        
  11     0.00000371146382   -805.40068784749303   1.022456   -805.40162305561398        
  12     0.00000363363127   -805.40129209383770   0.650100   -805.40240279674288        
  13     0.00000173335001   -805.40226293463036  <-- CG
|ITER|    RMS GRADIENT   |     TOTAL ENERGY    |   step   |     Epredicted              
   0     0.00000633497275   -805.42696172119884   0.242075   -805.42821883693296        
   1     0.00000572612149   -805.42923961867712   0.261872   -805.43134698988899        
   2     0.00000476670666   -805.43231392160646   0.262636   -805.43425673696743        
   3     0.00000386903410   -805.43495477230260   0.259031   -805.43640399182163        
   4     0.00000322632767   -805.43665116027591   1.040664   -805.43805288691874        
   5     0.00000249948133   -805.43886041957501   1.055110   -805.44029231431762        
   6     0.00000197310580   -805.44096696945212  <-- CG
onetep_launcher: ONETEP seems to have finished correctly (zero exit code).
                 Brought to you by PID 1265902 on trent006.blythe.scrtp.warwick.ac.uk.
